 Output coordinates in a.u. (scale by  1.000000000 to convert to a.u.)

  No.       Tag          Charge          X              Y              Z
 ---- ---------------- ---------- -------------- -------------- --------------
    1 Au                  79.0000     0.00000000     0.00000000     0.00000000

         Total SCF energy =   -134.684334043865

 Vector    2  Occ=2.000000D+00  E=-3.036992D+00  Symmetry=b3u

 Vector    3  Occ=2.000000D+00  E=-3.036992D+00  Symmetry=b2u

 Vector    4  Occ=2.000000D+00  E=-3.036992D+00  Symmetry=b1u

 Vector    5  Occ=2.000000D+00  E=-7.663507D-01  Symmetry=b1g

 Vector    6  Occ=2.000000D+00  E=-7.663507D-01  Symmetry=ag

 Vector    7  Occ=2.000000D+00  E=-7.663507D-01  Symmetry=b2g

 Vector    8  Occ=2.000000D+00  E=-7.663507D-01  Symmetry=b3g

 Vector    9  Occ=2.000000D+00  E=-7.663507D-01  Symmetry=ag

 Vector   10  Occ=0.000000D+00  E=-2.737631D-01  Symmetry=ag

 Vector   11  Occ=0.000000D+00  E=-1.240633D-01  Symmetry=b3u

 Vector   12  Occ=0.000000D+00  E=-1.240633D-01  Symmetry=b2u

 Vector   13  Occ=0.000000D+00  E=-1.240633D-01  Symmetry=b1u

 Vector   14  Occ=0.000000D+00  E=-8.315755D-02  Symmetry=ag

 Vector   15  Occ=0.000000D+00  E=-4.596356D-02  Symmetry=b2g

 Vector   16  Occ=0.000000D+00  E=-4.596356D-02  Symmetry=b3g

 Vector   17  Occ=0.000000D+00  E=-4.596356D-02  Symmetry=b1g

 Vector   18  Occ=0.000000D+00  E=-4.596356D-02  Symmetry=ag

 Vector   19  Occ=0.000000D+00  E=-4.596356D-02  Symmetry=ag

 Vector   20  Occ=0.000000D+00  E=-4.114152D-02  Symmetry=ag

 Vector   21  Occ=0.000000D+00  E=-4.037265D-02  Symmetry=b3u

 Vector   22  Occ=0.000000D+00  E=-4.037265D-02  Symmetry=b2u

 Vector   23  Occ=0.000000D+00  E=-4.037265D-02  Symmetry=b1u

 Vector   24  Occ=0.000000D+00  E= 1.843183D-03  Symmetry=ag

 Vector   25  Occ=0.000000D+00  E= 7.575540D-02  Symmetry=b3g

 Vector   26  Occ=0.000000D+00  E= 7.575540D-02  Symmetry=b2g

 Vector   27  Occ=0.000000D+00  E= 7.575540D-02  Symmetry=ag

 Vector   28  Occ=0.000000D+00  E= 7.575540D-02  Symmetry=b1g

 Vector   29  Occ=0.000000D+00  E= 7.575540D-02  Symmetry=ag

 Vector   30  Occ=0.000000D+00  E= 1.134408D-01  Symmetry=b3u

 Vector   31  Occ=0.000000D+00  E= 1.134408D-01  Symmetry=b2u

 Vector   32  Occ=0.000000D+00  E= 1.134408D-01  Symmetry=b1u

 Vector   33  Occ=0.000000D+00  E= 1.657851D-01  Symmetry=ag

 Vector   34  Occ=0.000000D+00  E= 4.669842D-01  Symmetry=ag

 Vector   35  Occ=0.000000D+00  E= 4.669842D-01  Symmetry=b2g

 Vector   36  Occ=0.000000D+00  E= 4.669842D-01  Symmetry=b3g

 Vector   37  Occ=0.000000D+00  E= 4.669842D-01  Symmetry=b1g

 Vector   38  Occ=0.000000D+00  E= 4.669842D-01  Symmetry=ag

 Vector   39  Occ=0.000000D+00  E= 5.011874D-01  Symmetry=b3u

       Multipole analysis of the density wrt the origin
       ------------------------------------------------

     L   x y z        total         open         nuclear
     -   - - -        -----         ----         -------
     0   0 0 0      1.000000      0.000000     19.000000

     1   1 0 0      0.000000      0.000000      0.000000
     1   0 1 0      0.000000      0.000000      0.000000
     1   0 0 1     -0.000000      0.000000      0.000000

     2   2 0 0    -12.935383      0.000000      0.000000
     2   1 1 0      0.000000      0.000000      0.000000
     2   1 0 1     -0.000000      0.000000      0.000000
     2   0 2 0    -12.935383      0.000000      0.000000
     2   0 1 1     -0.000000      0.000000      0.000000

          Total MP2 energy          -135.362327853447
         Total SCF energy =   -134.684334043865
          Total MP2 energy          -135.362327853447
         Total SCF energy =   -134.684334043865
 Total MP2 energy:           -135.362327853447255
 Total times  cpu:       58.3s     wall:       70.7
